<?xml version="1.0" encoding="UTF-8"?>

<!-- generated on 2026-04-09T20:46:40.391669-05:00 by Eclipse SUMO GUI v1_25_0+0215-c577e32eef6
<sumoConfiguration xmlns:xsi="http://www.w3.org/2001/XMLSchema-instance" xsi:noNamespaceSchemaLocation="http://sumo.dlr.de/xsd/sumoConfiguration.xsd">

    <input>
        <net-file value="i24b.net.xml"/>
        <route-files value="i24b_gt.rou.xml"/>
        <additional-files value="12-15_detectors.xml"/>
    </input>

    <output>
        <fcd-output value="fcd_output/fcd_sim.xml"/>
        <tripinfo-output value="tripinfo_gt.xml"/>
    </output>

    <time>
        <begin value="0"/>
        <end value="600"/>
        <step-length value="0.1"/>
    </time>

    <processing>
        <lateral-resolution value="0.5"/>
    </processing>

    <report>
        <xml-validation value="never"/>
        <no-step-log value="true"/>
    </report>

    <gui_only>
        <start value="t"/>
    </gui_only>

</sumoConfiguration>
-->

<detector xmlns:xsi="http://www.w3.org/2001/XMLSchema-instance" xsi:noNamespaceSchemaLocation="http://sumo.dlr.de/xsd/det_e1_file.xsd">
    <interval begin="0.00" end="30.00" id="553-westbound_0" nVehContrib="0" flow="0.00" occupancy="0.00" speed="-1.00" harmonicMeanSpeed="-1.00" length="-1.00" nVehEntered="0"/>
    <interval begin="0.00" end="30.00" id="553-westbound_1" nVehContrib="0" flow="0.00" occupancy="0.00" speed="-1.00" harmonicMeanSpeed="-1.00" length="-1.00" nVehEntered="0"/>
    <interval begin="0.00" end="30.00" id="553-westbound_2" nVehContrib="0" flow="0.00" occupancy="0.00" speed="-1.00" harmonicMeanSpeed="-1.00" length="-1.00" nVehEntered="0"/>
    <interval begin="0.00" end="30.00" id="553-westbound_3" nVehContrib="0" flow="0.00" occupancy="0.00" speed="-1.00" harmonicMeanSpeed="-1.00" length="-1.00" nVehEntered="0"/>
    <interval begin="0.00" end="30.00" id="555-westbound_0" nVehContrib="0" flow="0.00" occupancy="0.00" speed="-1.00" harmonicMeanSpeed="-1.00" length="-1.00" nVehEntered="0"/>
    <interval begin="0.00" end="30.00" id="555-westbound_1" nVehContrib="4" flow="480.00" occupancy="1.89" speed="30.45" harmonicMeanSpeed="30.40" length="4.30" nVehEntered="4"/>
    <interval begin="0.00" end="30.00" id="555-westbound_2" nVehContrib="0" flow="0.00" occupancy="0.00" speed="-1.00" harmonicMeanSpeed="-1.00" length="-1.00" nVehEntered="0"/>
    <interval begin="0.00" end="30.00" id="555-westbound_3" nVehContrib="0" flow="0.00" occupancy="0.00" speed="-1.00" harmonicMeanSpeed="-1.00" length="-1.00" nVehEntered="0"/>
    <interval begin="0.00" end="30.00" id="555-westbound_4" nVehContrib="0" flow="0.00" occupancy="0.00" speed="-1.00" harmonicMeanSpeed="-1.00" length="-1.00" nVehEntered="0"/>
    <interval begin="0.00" end="30.00" id="556-westbound_0" nVehContrib="8" flow="960.00" occupancy="5.04" speed="22.81" harmonicMeanSpeed="22.77" length="4.30" nVehEntered="8"/>
    <interval begin="0.00" end="30.00" id="556-westbound_1" nVehContrib="0" flow="0.00" occupancy="0.00" speed="-1.00" harmonicMeanSpeed="-1.00" length="-1.00" nVehEntered="0"/>
    <interval begin="0.00" end="30.00" id="556-westbound_2" nVehContrib="0" flow="0.00" occupancy="0.00" speed="-1.00" harmonicMeanSpeed="-1.00" length="-1.00" nVehEntered="0"/>
    <interval begin="0.00" end="30.00" id="556-westbound_3" nVehContrib="0" flow="0.00" occupancy="0.00" speed="-1.00" harmonicMeanSpeed="-1.00" length="-1.00" nVehEntered="0"/>
    <interval begin="0.00" end="30.00" id="556-westbound_4" nVehContrib="0" flow="0.00" occupancy="0.00" speed="-1.00" harmonicMeanSpeed="-1.00" length="-1.00" nVehEntered="0"/>
    <interval begin="0.00" end="30.00" id="558-westbound_0" nVehContrib="1" flow="120.00" occupancy="0.50" speed="28.69" harmonicMeanSpeed="28.69" length="4.30" nVehEntered="1"/>
    <interval begin="0.00" end="30.00" id="558-westbound_1" nVehContrib="2" flow="240.00" occupancy="0.97" speed="29.69" harmonicMeanSpeed="29.64" length="4.30" nVehEntered="2"/>
    <interval begin="0.00" end="30.00" id="558-westbound_2" nVehContrib="0" flow="0.00" occupancy="0.00" speed="-1.00" harmonicMeanSpeed="-1.00" length="-1.00" nVehEntered="0"/>
    <interval begin="0.00" end="30.00" id="558-westbound_3" nVehContrib="0" flow="0.00" occupancy="0.00" speed="-1.00" harmonicMeanSpeed="-1.00" length="-1.00" nVehEntered="0"/>
    <interval begin="0.00" end="30.00" id="558-westbound_4" nVehContrib="0" flow="0.00" occupancy="0.00" speed="-1.00" harmonicMeanSpeed="-1.00" length="-1.00" nVehEntered="0"/>
    <interval begin="0.00" end="30.00" id="559-westbound_0" nVehContrib="0" flow="0.00" occupancy="0.00" speed="-1.00" harmonicMeanSpeed="-1.00" length="-1.00" nVehEntered="0"/>
    <interval begin="0.00" end="30.00" id="559-westbound_1" nVehContrib="0" flow="0.00" occupancy="0.00" speed="-1.00" harmonicMeanSpeed="-1.00" length="-1.00" nVehEntered="0"/>
    <interval begin="0.00" end="30.00" id="559-westbound_2" nVehContrib="0" flow="0.00" occupancy="0.00" speed="-1.00" harmonicMeanSpeed="-1.00" length="-1.00" nVehEntered="0"/>
    <interval begin="0.00" end="30.00" id="559-westbound_3" nVehContrib="0" flow="0.00" occupancy="0.00" speed="-1.00" harmonicMeanSpeed="-1.00" length="-1.00" nVehEntered="0"/>
    <interval begin="0.00" end="30.00" id="560-westbound_0" nVehContrib="0" flow="0.00" occupancy="0.00" speed="-1.00" harmonicMeanSpeed="-1.00" length="-1.00" nVehEntered="0"/>
    <interval begin="0.00" end="30.00" id="560-westbound_1" nVehContrib="0" flow="0.00" occupancy="0.00" speed="-1.00" harmonicMeanSpeed="-1.00" length="-1.00" nVehEntered="0"/>
    <interval begin="0.00" end="30.00" id="560-westbound_2" nVehContrib="0" flow="0.00" occupancy="0.00" speed="-1.00" harmonicMeanSpeed="-1.00" length="-1.00" nVehEntered="0"/>
    <interval begin="0.00" end="30.00" id="560-westbound_3" nVehContrib="0" flow="0.00" occupancy="0.00" speed="-1.00" harmonicMeanSpeed="-1.00" length="-1.00" nVehEntered="0"/>
    <interval begin="0.00" end="30.00" id="560-westbound_4" nVehContrib="0" flow="0.00" occupancy="0.00" speed="-1.00" harmonicMeanSpeed="-1.00" length="-1.00" nVehEntered="0"/>
    <interval begin="0.00" end="30.00" id="561-westbound_0" nVehContrib="0" flow="0.00" occupancy="0.00" speed="-1.00" harmonicMeanSpeed="-1.00" length="-1.00" nVehEntered="0"/>
    <interval begin="0.00" end="30.00" id="561-westbound_1" nVehContrib="0" flow="0.00" occupancy="0.00" speed="-1.00" harmonicMeanSpeed="-1.00" length="-1.00" nVehEntered="0"/>
    <interval begin="0.00" end="30.00" id="561-westbound_2" nVehContrib="0" flow="0.00" occupancy="0.00" speed="-1.00" harmonicMeanSpeed="-1.00" length="-1.00" nVehEntered="0"/>
    <interval begin="0.00" end="30.00" id="561-westbound_3" nVehContrib="0" flow="0.00" occupancy="0.00" speed="-1.00" harmonicMeanSpeed="-1.00" length="-1.00" nVehEntered="0"/>
    <interval begin="0.00" end="30.00" id="562-westbound_0" nVehContrib="0" flow="0.00" occupancy="0.00" speed="-1.00" harmonicMeanSpeed="-1.00" length="-1.00" nVehEntered="0"/>
    <interval begin="0.00" end="30.00" id="562-westbound_1" nVehContrib="0" flow="0.00" occupancy="0.00" speed="-1.00" harmonicMeanSpeed="-1.00" length="-1.00" nVehEntered="0"/>
    <interval begin="0.00" end="30.00" id="562-westbound_2" nVehContrib="0" flow="0.00" occupancy="0.00" speed="-1.00" harmonicMeanSpeed="-1.00" length="-1.00" nVehEntered="0"/>
    <interval begin="0.00" end="30.00" id="562-westbound_3" nVehContrib="0" flow="0.00" occupancy="0.00" speed="-1.00" harmonicMeanSpeed="-1.00" length="-1.00" nVehEntered="0"/>
    <interval begin="0.00" end="30.00" id="563-westbound_0" nVehContrib="0" flow="0.00" occupancy="0.00" speed="-1.00" harmonicMeanSpeed="-1.00" length="-1.00" nVehEntered="0"/>
    <interval begin="0.00" end="30.00" id="563-westbound_1" nVehContrib="0" flow="0.00" occupancy="0.00" speed="-1.00" harmonicMeanSpeed="-1.00" length="-1.00" nVehEntered="0"/>
    <interval begin="0.00" end="30.00" id="563-westbound_2" nVehContrib="0" flow="0.00" occupancy="0.00" speed="-1.00" harmonicMeanSpeed="-1.00" length="-1.00" nVehEntered="0"/>
    <interval begin="0.00" end="30.00" id="563-westbound_3" nVehContrib="0" flow="0.00" occupancy="0.00" speed="-1.00" harmonicMeanSpeed="-1.00" length="-1.00" nVehEntered="0"/>
    <interval begin="0.00" end="30.00" id="564-westbound_0" nVehContrib="4" flow="480.00" occupancy="2.94" speed="24.35" harmonicMeanSpeed="24.21" length="4.30" nVehEntered="5"/>
    <interval begin="0.00" end="30.00" id="564-westbound_1" nVehContrib="1" flow="120.00" occupancy="0.39" speed="36.76" harmonicMeanSpeed="36.76" length="4.30" nVehEntered="1"/>
    <interval begin="0.00" end="30.00" id="564-westbound_2" nVehContrib="0" flow="0.00" occupancy="0.00" speed="-1.00" harmonicMeanSpeed="-1.00" length="-1.00" nVehEntered="0"/>
    <interval begin="0.00" end="30.00" id="564-westbound_3" nVehContrib="0" flow="0.00" occupancy="0.00" speed="-1.00" harmonicMeanSpeed="-1.00" length="-1.00" nVehEntered="0"/>
    <interval begin="0.00" end="30.00" id="564-westbound_4" nVehContrib="0" flow="0.00" occupancy="0.00" speed="-1.00" harmonicMeanSpeed="-1.00" length="-1.00" nVehEntered="0"/>
    <interval begin="0.00" end="30.00" id="565-westbound_0" nVehContrib="1" flow="120.00" occupancy="0.45" speed="32.20" harmonicMeanSpeed="32.20" length="4.30" nVehEntered="1"/>
    <interval begin="0.00" end="30.00" id="565-westbound_1" nVehContrib="0" flow="0.00" occupancy="0.00" speed="-1.00" harmonicMeanSpeed="-1.00" length="-1.00" nVehEntered="0"/>
    <interval begin="0.00" end="30.00" id="565-westbound_2" nVehContrib="0" flow="0.00" occupancy="0.00" speed="-1.00" harmonicMeanSpeed="-1.00" length="-1.00" nVehEntered="0"/>
    <interval begin="0.00" end="30.00" id="565-westbound_3" nVehContrib="0" flow="0.00" occupancy="0.00" speed="-1.00" harmonicMeanSpeed="-1.00" length="-1.00" nVehEntered="0"/>
    <interval begin="30.00" end="60.00" id="553-westbound_0" nVehContrib="9" flow="1080.00" occupancy="4.29" speed="30.13" harmonicMeanSpeed="30.06" length="4.30" nVehEntered="9"/>
    <interval begin="30.00" end="60.00" id="553-westbound_1" nVehContrib="1" flow="120.00" occupancy="0.39" speed="36.45" harmonicMeanSpeed="36.45" length="4.30" nVehEntered="1"/>
    <interval begin="30.00" end="60.00" id="553-westbound_2" nVehContrib="0" flow="0.00" occupancy="0.00" speed="-1.00" harmonicMeanSpeed="-1.00" length="-1.00" nVehEntered="0"/>
    <interval begin="30.00" end="60.00" id="553-westbound_3" nVehContrib="0" flow="0.00" occupancy="0.00" speed="-1.00" harmonicMeanSpeed="-1.00" length="-1.00" nVehEntered="0"/>
    <interval begin="30.00" end="60.00" id="555-westbound_0" nVehContrib="0" flow="0.00" occupancy="0.00" speed="-1.00" harmonicMeanSpeed="-1.00" length="-1.00" nVehEntered="0"/>
    <interval begin="30.00" end="60.00" id="555-westbound_1" nVehContrib="11" flow="1320.00" occupancy="5.79" speed="29.65" harmonicMeanSpeed="29.61" length="4.30" nVehEntered="12"/>
    <interval begin="30.00" end="60.00" id="555-westbound_2" nVehContrib="3" flow="360.00" occupancy="1.39" speed="30.87" harmonicMeanSpeed="30.83" length="4.30" nVehEntered="3"/>
    <interval begin="30.00" end="60.00" id="555-westbound_3" nVehContrib="0" flow="0.00" occupancy="0.00" speed="-1.00" harmonicMeanSpeed="-1.00" length="-1.00" nVehEntered="0"/>
    <interval begin="30.00" end="60.00" id="555-westbound_4" nVehContrib="0" flow="0.00" occupancy="0.00" speed="-1.00" harmonicMeanSpeed="-1.00" length="-1.00" nVehEntered="0"/>
    <interval begin="30.00" end="60.00" id="556-westbound_0" nVehContrib="12" flow="1440.00" occupancy="7.45" speed="23.10" harmonicMeanSpeed="23.07" length="4.30" nVehEntered="12"/>
    <interval begin="30.00" end="60.00" id="556-westbound_1" nVehContrib="0" flow="0.00" occupancy="0.00" speed="-1.00" harmonicMeanSpeed="-1.00" length="-1.00" nVehEntered="0"/>
    <interval begin="30.00" end="60.00" id="556-westbound_2" nVehContrib="4" flow="480.00" occupancy="1.91" speed="30.02" harmonicMeanSpeed="29.99" length="4.30" nVehEntered="4"/>
    <interval begin="30.00" end="60.00" id="556-westbound_3" nVehContrib="0" flow="0.00" occupancy="0.00" speed="-1.00" harmonicMeanSpeed="-1.00" length="-1.00" nVehEntered="0"/>
    <interval begin="30.00" end="60.00" id="556-westbound_4" nVehContrib="0" flow="0.00" occupancy="0.00" speed="-1.00" harmonicMeanSpeed="-1.00" length="-1.00" nVehEntered="0"/>
    <interval begin="30.00" end="60.00" id="558-westbound_0" nVehContrib="5" flow="600.00" occupancy="2.57" speed="27.94" harmonicMeanSpeed="27.84" length="4.30" nVehEntered="5"/>
    <interval begin="30.00" end="60.00" id="558-westbound_1" nVehContrib="8" flow="960.00" occupancy="4.01" speed="28.63" harmonicMeanSpeed="28.58" length="4.30" nVehEntered="8"/>
    <interval begin="30.00" end="60.00" id="558-westbound_2" nVehContrib="2" flow="240.00" occupancy="0.95" speed="30.03" harmonicMeanSpeed="30.03" length="4.30" nVehEntered="2"/>
    <interval begin="30.00" end="60.00" id="558-westbound_3" nVehContrib="0" flow="0.00" occupancy="0.00" speed="-1.00" harmonicMeanSpeed="-1.00" length="-1.00" nVehEntered="0"/>
    <interval begin="30.00" end="60.00" id="558-westbound_4" nVehContrib="0" flow="0.00" occupancy="0.00" speed="-1.00" harmonicMeanSpeed="-1.00" length="-1.00" nVehEntered="0"/>
    <interval begin="30.00" end="60.00" id="559-westbound_0" nVehContrib="0" flow="0.00" occupancy="0.00" speed="-1.00" harmonicMeanSpeed="-1.00" length="-1.00" nVehEntered="0"/>
    <interval begin="30.00" end="60.00" id="559-westbound_1" nVehContrib="0" flow="0.00" occupancy="0.00" speed="-1.00" harmonicMeanSpeed="-1.00" length="-1.00" nVehEntered="0"/>
    <interval begin="30.00" end="60.00" id="559-westbound_2" nVehContrib="0" flow="0.00" occupancy="0.00" speed="-1.00" harmonicMeanSpeed="-1.00" length="-1.00" nVehEntered="0"/>
    <interval begin="30.00" end="60.00" id="559-westbound_3" nVehContrib="0" flow="0.00" occupancy="0.00" speed="-1.00" harmonicMeanSpeed="-1.00" length="-1.00" nVehEntered="0"/>
    <interval begin="30.00" end="60.00" id="560-westbound_0" nVehContrib="0" flow="0.00" occupancy="0.00" speed="-1.00" harmonicMeanSpeed="-1.00" length="-1.00" nVehEntered="0"/>
    <interval begin="30.00" end="60.00" id="560-westbound_1" nVehContrib="0" flow="0.00" occupancy="0.00" speed="-1.00" harmonicMeanSpeed="-1.00" length="-1.00" nVehEntered="0"/>
    <interval begin="30.00" end="60.00" id="560-westbound_2" nVehContrib="0" flow="0.00" occupancy="0.00" speed="-1.00" harmonicMeanSpeed="-1.00" length="-1.00" nVehEntered="0"/>
    <interval begin="30.00" end="60.00" id="560-westbound_3" nVehContrib="0" flow="0.00" occupancy="0.00" speed="-1.00" harmonicMeanSpeed="-1.00" length="-1.00" nVehEntered="0"/>
    <interval begin="30.00" end="60.00" id="560-westbound_4" nVehContrib="0" flow="0.00" occupancy="0.00" speed="-1.00" harmonicMeanSpeed="-1.00" length="-1.00" nVehEntered="0"/>
    <interval begin="30.00" end="60.00" id="561-westbound_0" nVehContrib="0" flow="0.00" occupancy="0.00" speed="-1.00" harmonicMeanSpeed="-1.00" length="-1.00" nVehEntered="0"/>
    <interval begin="30.00" end="60.00" id="561-westbound_1" nVehContrib="0" flow="0.00" occupancy="0.00" speed="-1.00" harmonicMeanSpeed="-1.00" length="-1.00" nVehEntered="0"/>
    <interval begin="30.00" end="60.00" id="561-westbound_2" nVehContrib="0" flow="0.00" occupancy="0.00" speed="-1.00" harmonicMeanSpeed="-1.00" length="-1.00" nVehEntered="0"/>
    <interval begin="30.00" end="60.00" id="561-westbound_3" nVehContrib="0" flow="0.00" occupancy="0.00" speed="-1.00" harmonicMeanSpeed="-1.00" length="-1.00" nVehEntered="0"/>
    <interval begin="30.00" end="60.00" id="562-westbound_0" nVehContrib="0" flow="0.00" occupancy="0.00" speed="-1.00" harmonicMeanSpeed="-1.00" length="-1.00" nVehEntered="0"/>
    <interval begin="30.00" end="60.00" id="562-westbound_1" nVehContrib="0" flow="0.00" occupancy="0.00" speed="-1.00" harmonicMeanSpeed="-1.00" length="-1.00" nVehEntered="0"/>
    <interval begin="30.00" end="60.00" id="562-westbound_2" nVehContrib="0" flow="0.00" occupancy="0.00" speed="-1.00" harmonicMeanSpeed="-1.00" length="-1.00" nVehEntered="0"/>
    <interval begin="30.00" end="60.00" id="562-westbound_3" nVehContrib="0" flow="0.00" occupancy="0.00" speed="-1.00" harmonicMeanSpeed="-1.00" length="-1.00" nVehEntered="0"/>
    <interval begin="30.00" end="60.00" id="563-westbound_0" nVehContrib="2" flow="240.00" occupancy="0.94" speed="30.80" harmonicMeanSpeed="30.49" length="4.30" nVehEntered="2"/>
    <interval begin="30.00" end="60.00" id="563-westbound_1" nVehContrib="2" flow="240.00" occupancy="0.85" speed="33.73" harmonicMeanSpeed="33.73" length="4.30" nVehEntered="2"/>
    <interval begin="30.00" end="60.00" id="563-westbound_2" nVehContrib="0" flow="0.00" occupancy="0.00" speed="-1.00" harmonicMeanSpeed="-1.00" length="-1.00" nVehEntered="0"/>
    <interval begin="30.00" end="60.00" id="563-westbound_3" nVehContrib="0" flow="0.00" occupancy="0.00" speed="-1.00" harmonicMeanSpeed="-1.00" length="-1.00" nVehEntered="0"/>
    <interval begin="30.00" end="60.00" id="564-westbound_0" nVehContrib="16" flow="1920.00" occupancy="9.89" speed="23.20" harmonicMeanSpeed="23.19" length="4.30" nVehEntered="16"/>
    <interval begin="30.00" end="60.00" id="564-westbound_1" nVehContrib="3" flow="360.00" occupancy="1.51" speed="28.55" harmonicMeanSpeed="28.51" length="4.30" nVehEntered="3"/>
    <interval begin="30.00" end="60.00" id="564-westbound_2" nVehContrib="1" flow="120.00" occupancy="0.41" speed="34.71" harmonicMeanSpeed="34.71" length="4.30" nVehEntered="1"/>
    <interval begin="30.00" end="60.00" id="564-westbound_3" nVehContrib="0" flow="0.00" occupancy="0.00" speed="-1.00" harmonicMeanSpeed="-1.00" length="-1.00" nVehEntered="0"/>
    <interval begin="30.00" end="60.00" id="564-westbound_4" nVehContrib="0" flow="0.00" occupancy="0.00" speed="-1.00" harmonicMeanSpeed="-1.00" length="-1.00" nVehEntered="0"/>
    <interval begin="30.00" end="60.00" id="565-westbound_0" nVehContrib="11" flow="1320.00" occupancy="5.66" speed="27.90" harmonicMeanSpeed="27.83" length="4.30" nVehEntered="11"/>
    <interval begin="30.00" end="60.00" id="565-westbound_1" nVehContrib="4" flow="480.00" occupancy="1.64" speed="34.92" harmonicMeanSpeed="34.89" length="4.30" nVehEntered="4"/>
    <interval begin="30.00" end="60.00" id="565-westbound_2" nVehContrib="0" flow="0.00" occupancy="0.00" speed="-1.00" harmonicMeanSpeed="-1.00" length="-1.00" nVehEntered="0"/>
    <interval begin="30.00" end="60.00" id="565-westbound_3" nVehContrib="0" flow="0.00" occupancy="0.00" speed="-1.00" harmonicMeanSpeed="-1.00" length="-1.00" nVehEntered="0"/>
    <interval begin="60.00" end="90.00" id="553-westbound_0" nVehContrib="12" flow="1440.00" occupancy="5.85" speed="29.46" harmonicMeanSpeed="29.40" length="4.30" nVehEntered="12"/>
    <interval begin="60.00" end="90.00" id="553-westbound_1" nVehContrib="4" flow="480.00" occupancy="1.89" speed="30.28" harmonicMeanSpeed="30.26" length="4.30" nVehEntered="4"/>
    <interval begin="60.00" end="90.00" id="553-westbound_2" nVehContrib="0" flow="0.00" occupancy="0.00" speed="-1.00" harmonicMeanSpeed="-1.00" length="-1.00" nVehEntered="0"/>
    <interval begin="60.00" end="90.00" id="553-westbound_3" nVehContrib="0" flow="0.00" occupancy="0.00" speed="-1.00" harmonicMeanSpeed="-1.00" length="-1.00" nVehEntered="0"/>
    <interval begin="60.00" end="90.00" id="555-westbound_0" nVehContrib="0" flow="0.00" occupancy="0.00" speed="-1.00" harmonicMeanSpeed="-1.00" length="-1.00" nVehEntered="0"/>
    <interval begin="60.00" end="90.00" id="555-westbound_1" nVehContrib="13" flow="1560.00" occupancy="6.43" speed="27.10" harmonicMeanSpeed="27.05" length="4.30" nVehEntered="12"/>
    <interval begin="60.00" end="90.00" id="555-westbound_2" nVehContrib="9" flow="1080.00" occupancy="4.43" speed="29.25" harmonicMeanSpeed="29.15" length="4.30" nVehEntered="9"/>
    <interval begin="60.00" end="90.00" id="555-westbound_3" nVehContrib="0" flow="0.00" occupancy="0.00" speed="-1.00" harmonicMeanSpeed="-1.00" length="-1.00" nVehEntered="0"/>
    <interval begin="60.00" end="90.00" id="555-westbound_4" nVehContrib="0" flow="0.00" occupancy="0.00" speed="-1.00" harmonicMeanSpeed="-1.00" length="-1.00" nVehEntered="0"/>
    <interval begin="60.00" end="90.00" id="556-westbound_0" nVehContrib="12" flow="1440.00" occupancy="8.23" speed="20.91" harmonicMeanSpeed="20.89" length="4.30" nVehEntered="12"/>
    <interval begin="60.00" end="90.00" id="556-westbound_1" nVehContrib="1" flow="120.00" occupancy="0.53" speed="26.80" harmonicMeanSpeed="26.80" length="4.30" nVehEntered="1"/>
    <interval begin="60.00" end="90.00" id="556-westbound_2" nVehContrib="9" flow="1080.00" occupancy="4.35" speed="29.86" harmonicMeanSpeed="29.64" length="4.30" nVehEntered="9"/>
    <interval begin="60.00" end="90.00" id="556-westbound_3" nVehContrib="0" flow="0.00" occupancy="0.00" speed="-1.00" harmonicMeanSpeed="-1.00" length="-1.00" nVehEntered="0"/>
    <interval begin="60.00" end="90.00" id="556-westbound_4" nVehContrib="0" flow="0.00" occupancy="0.00" speed="-1.00" harmonicMeanSpeed="-1.00" length="-1.00" nVehEntered="0"/>
    <interval begin="60.00" end="90.00" id="558-westbound_0" nVehContrib="2" flow="240.00" occupancy="1.04" speed="27.64" harmonicMeanSpeed="27.63" length="4.30" nVehEntered="2"/>
    <interval begin="60.00" end="90.00" id="558-westbound_1" nVehContrib="5" flow="600.00" occupancy="2.59" speed="27.76" harmonicMeanSpeed="27.67" length="4.30" nVehEntered="5"/>
    <interval begin="60.00" end="90.00" id="558-westbound_2" nVehContrib="1" flow="120.00" occupancy="0.47" speed="30.44" harmonicMeanSpeed="30.44" length="4.30" nVehEntered="1"/>
    <interval begin="60.00" end="90.00" id="558-westbound_3" nVehContrib="0" flow="0.00" occupancy="0.00" speed="-1.00" harmonicMeanSpeed="-1.00" length="-1.00" nVehEntered="0"/>
    <interval begin="60.00" end="90.00" id="558-westbound_4" nVehContrib="0" flow="0.00" occupancy="0.00" speed="-1.00" harmonicMeanSpeed="-1.00" length="-1.00" nVehEntered="0"/>
    <interval begin="60.00" end="90.00" id="559-westbound_0" nVehContrib="0" flow="0.00" occupancy="0.00" speed="-1.00" harmonicMeanSpeed="-1.00" length="-1.00" nVehEntered="0"/>
    <interval begin="60.00" end="90.00" id="559-westbound_1" nVehContrib="0" flow="0.00" occupancy="0.00" speed="-1.00" harmonicMeanSpeed="-1.00" length="-1.00" nVehEntered="0"/>
    <interval begin="60.00" end="90.00" id="559-westbound_2" nVehContrib="0" flow="0.00" occupancy="0.00" speed="-1.00" harmonicMeanSpeed="-1.00" length="-1.00" nVehEntered="0"/>
    <interval begin="60.00" end="90.00" id="559-westbound_3" nVehContrib="0" flow="0.00" occupancy="0.00" speed="-1.00" harmonicMeanSpeed="-1.00" length="-1.00" nVehEntered="0"/>
    <interval begin="60.00" end="90.00" id="560-westbound_0" nVehContrib="0" flow="0.00" occupancy="0.00" speed="-1.00" harmonicMeanSpeed="-1.00" length="-1.00" nVehEntered="0"/>
    <interval begin="60.00" end="90.00" id="560-westbound_1" nVehContrib="0" flow="0.00" occupancy="0.00" speed="-1.00" harmonicMeanSpeed="-1.00" length="-1.00" nVehEntered="0"/>
    <interval begin="60.00" end="90.00" id="560-westbound_2" nVehContrib="0" flow="0.00" occupancy="0.00" speed="-1.00" harmonicMeanSpeed="-1.00" length="-1.00" nVehEntered="0"/>
    <interval begin="60.00" end="90.00" id="560-westbound_3" nVehContrib="0" flow="0.00" occupancy="0.00" speed="-1.00" harmonicMeanSpeed="-1.00" length="-1.00" nVehEntered="0"/>
    <interval begin="60.00" end="90.00" id="560-westbound_4" nVehContrib="0" flow="0.00" occupancy="0.00" speed="-1.00" harmonicMeanSpeed="-1.00" length="-1.00" nVehEntered="0"/>
    <interval begin="60.00" end="90.00" id="561-westbound_0" nVehContrib="0" flow="0.00" occupancy="0.00" speed="-1.00" harmonicMeanSpeed="-1.00" length="-1.00" nVehEntered="0"/>
    <interval begin="60.00" end="90.00" id="561-westbound_1" nVehContrib="0" flow="0.00" occupancy="0.00" speed="-1.00" harmonicMeanSpeed="-1.00" length="-1.00" nVehEntered="0"/>
    <interval begin="60.00" end="90.00" id="561-westbound_2" nVehContrib="0" flow="0.00" occupancy="0.00" speed="-1.00" harmonicMeanSpeed="-1.00" length="-1.00" nVehEntered="0"/>
    <interval begin="60.00" end="90.00" id="561-westbound_3" nVehContrib="0" flow="0.00" occupancy="0.00" speed="-1.00" harmonicMeanSpeed="-1.00" length="-1.00" nVehEntered="0"/>
    <interval begin="60.00" end="90.00" id="562-westbound_0" nVehContrib="3" flow="360.00" occupancy="1.36" speed="31.87" harmonicMeanSpeed="31.58" length="4.30" nVehEntered="3"/>
    <interval begin="60.00" end="90.00" id="562-westbound_1" nVehContrib="1" flow="120.00" occupancy="0.41" speed="35.06" harmonicMeanSpeed="35.06" length="4.30" nVehEntered="1"/>
    <interval begin="60.00" end="90.00" id="562-westbound_2" nVehContrib="0" flow="0.00" occupancy="0.00" speed="-1.00" harmonicMeanSpeed="-1.00" length="-1.00" nVehEntered="0"/>
    <interval begin="60.00" end="90.00" id="562-westbound_3" nVehContrib="0" flow="0.00" occupancy="0.00" speed="-1.00" harmonicMeanSpeed="-1.00" length="-1.00" nVehEntered="0"/>
    <interval begin="60.00" end="90.00" id="563-westbound_0" nVehContrib="10" flow="1200.00" occupancy="5.21" speed="27.53" harmonicMeanSpeed="27.52" length="4.30" nVehEntered="10"/>
    <interval begin="60.00" end="90.00" id="563-westbound_1" nVehContrib="6" flow="720.00" occupancy="2.88" speed="29.96" harmonicMeanSpeed="29.88" length="4.30" nVehEntered="6"/>
    <interval begin="60.00" end="90.00" id="563-westbound_2" nVehContrib="0" flow="0.00" occupancy="0.00" speed="-1.00" harmonicMeanSpeed="-1.00" length="-1.00" nVehEntered="0"/>
    <interval begin="60.00" end="90.00" id="563-westbound_3" nVehContrib="0" flow="0.00" occupancy="0.00" speed="-1.00" harmonicMeanSpeed="-1.00" length="-1.00" nVehEntered="0"/>
    <interval begin="60.00" end="90.00" id="564-westbound_0" nVehContrib="16" flow="1920.00" occupancy="9.98" speed="22.99" harmonicMeanSpeed="22.99" length="4.30" nVehEntered="16"/>
    <interval begin="60.00" end="90.00" id="564-westbound_1" nVehContrib="10" flow="1200.00" occupancy="5.46" speed="26.29" harmonicMeanSpeed="26.23" length="4.30" nVehEntered="10"/>
    <interval begin="60.00" end="90.00" id="564-westbound_2" nVehContrib="5" flow="600.00" occupancy="2.29" speed="31.81" harmonicMeanSpeed="31.31" length="4.30" nVehEntered="5"/>
    <interval begin="60.00" end="90.00" id="564-westbound_3" nVehContrib="0" flow="0.00" occupancy="0.00" speed="-1.00" harmonicMeanSpeed="-1.00" length="-1.00" nVehEntered="0"/>
    <interval begin="60.00" end="90.00" id="564-westbound_4" nVehContrib="0" flow="0.00" occupancy="0.00" speed="-1.00" harmonicMeanSpeed="-1.00" length="-1.00" nVehEntered="0"/>
    <interval begin="60.00" end="90.00" id="565-westbound_0" nVehContrib="14" flow="1680.00" occupancy="7.38" speed="27.24" harmonicMeanSpeed="27.20" length="4.30" nVehEntered="14"/>
    <interval begin="60.00" end="90.00" id="565-westbound_1" nVehContrib="2" flow="240.00" occupancy="0.83" speed="34.46" harmonicMeanSpeed="34.46" length="4.30" nVehEntered="2"/>
    <interval begin="60.00" end="90.00" id="565-westbound_2" nVehContrib="0" flow="0.00" occupancy="0.00" speed="-1.00" harmonicMeanSpeed="-1.00" length="-1.00" nVehEntered="0"/>
    <interval begin="60.00" end="90.00" id="565-westbound_3" nVehContrib="0" flow="0.00" occupancy="0.00" speed="-1.00" harmonicMeanSpeed="-1.00" length="-1.00" nVehEntered="0"/>
    <interval begin="90.00" end="120.00" id="553-westbound_0" nVehContrib="11" flow="1320.00" occupancy="5.94" speed="26.56" harmonicMeanSpeed="26.53" length="4.30" nVehEntered="11"/>
    <interval begin="90.00" end="120.00" id="553-westbound_1" nVehContrib="10" flow="1200.00" occupancy="5.02" speed="28.65" harmonicMeanSpeed="28.54" length="4.30" nVehEntered="10"/>
    <interval begin="90.00" end="120.00" id="553-westbound_2" nVehContrib="1" flow="120.00" occupancy="0.39" speed="36.59" harmonicMeanSpeed="36.59" length="4.30" nVehEntered="1"/>
    <interval begin="90.00" end="120.00" id="553-westbound_3" nVehContrib="0" flow="0.00" occupancy="0.00" speed="-1.00" harmonicMeanSpeed="-1.00" length="-1.00" nVehEntered="0"/>
    <interval begin="90.00" end="120.00" id="555-westbound_0" nVehContrib="0" flow="0.00" occupancy="0.00" speed="-1.00" harmonicMeanSpeed="-1.00" length="-1.00" nVehEntered="0"/>
    <interval begin="90.00" end="120.00" id="555-westbound_1" nVehContrib="12" flow="1440.00" occupancy="6.70" speed="27.21" harmonicMeanSpeed="27.18" length="4.30" nVehEntered="13"/>
    <interval begin="90.00" end="120.00" id="555-westbound_2" nVehContrib="6" flow="720.00" occupancy="2.99" speed="28.95" harmonicMeanSpeed="28.73" length="4.30" nVehEntered="6"/>
    <interval begin="90.00" end="120.00" id="555-westbound_3" nVehContrib="0" flow="0.00" occupancy="0.00" speed="-1.00" harmonicMeanSpeed="-1.00" length="-1.00" nVehEntered="0"/>
    <interval begin="90.00" end="120.00" id="555-westbound_4" nVehContrib="0" flow="0.00" occupancy="0.00" speed="-1.00" harmonicMeanSpeed="-1.00" length="-1.00" nVehEntered="0"/>
    <interval begin="90.00" end="120.00" id="556-westbound_0" nVehContrib="13" flow="1560.00" occupancy="8.67" speed="21.54" harmonicMeanSpeed="21.50" length="4.30" nVehEntered="13"/>
    <interval begin="90.00" end="120.00" id="556-westbound_1" nVehContrib="0" flow="0.00" occupancy="0.00" speed="-1.00" harmonicMeanSpeed="-1.00" length="-1.00" nVehEntered="0"/>
    <interval begin="90.00" end="120.00" id="556-westbound_2" nVehContrib="5" flow="600.00" occupancy="2.49" speed="28.94" harmonicMeanSpeed="28.79" length="4.30" nVehEntered="5"/>
    <interval begin="90.00" end="120.00" id="556-westbound_3" nVehContrib="0" flow="0.00" occupancy="0.00" speed="-1.00" harmonicMeanSpeed="-1.00" length="-1.00" nVehEntered="0"/>
    <interval begin="90.00" end="120.00" id="556-westbound_4" nVehContrib="0" flow="0.00" occupancy="0.00" speed="-1.00" harmonicMeanSpeed="-1.00" length="-1.00" nVehEntered="0"/>