<?xml version="1.0" encoding="UTF-8"?>

<!-- generated on 2026-04-21T00:51:18.040823-05:00 by Eclipse SUMO GUI v1_25_0+0215-c577e32eef6
<sumoConfiguration xmlns:xsi="http://www.w3.org/2001/XMLSchema-instance" xsi:noNamespaceSchemaLocation="http://sumo.dlr.de/xsd/sumoConfiguration.xsd">

    <input>
        <net-file value="i24b.net.xml"/>
        <route-files value="i24b_gt2.rou.xml"/>
        <additional-files value="12-15_detectors_gt.xml"/>
    </input>

    <output>
        <fcd-output value="fcd_output/fcd_sim.xml"/>
        <tripinfo-output value="tripinfo_gt.xml"/>
    </output>

    <time>
        <begin value="0"/>
        <end value="1800"/>
        <step-length value="0.1"/>
    </time>

    <processing>
        <lateral-resolution value="0.5"/>
    </processing>

    <report>
        <xml-validation value="never"/>
        <no-step-log value="true"/>
    </report>

    <gui_only>
        <start value="t"/>
    </gui_only>

</sumoConfiguration>
-->

<tripinfos xmlns:xsi="http://www.w3.org/2001/XMLSchema-instance" xsi:noNamespaceSchemaLocation="http://sumo.dlr.de/xsd/tripinfo_file.xsd">
    <tripinfo id="flow_1_390.0" depart="0.00" departLane="277208926_0" departPos="4.40" departPosLat="0.00" departSpeed="23.55" departDelay="0.00" arrival="42.10" arrivalLane="634155175_0" arrivalPos="768.32" arrivalPosLat="0.00" arrivalSpeed="33.17" duration="42.10" routeLength="1263.32" waitingTime="0.00" waitingCount="0" stopTime="0.00" timeLoss="1.20" rerouteNo="0" devices="tripinfo_flow_1_390.0 fcd_flow_1_390.0" vType="hdv" speedFactor="1.06" vaporized=""/>
    <tripinfo id="flow_4_390.0" depart="2.20" departLane="1016548847_0" departPos="4.40" departPosLat="0.00" departSpeed="23.24" departDelay="2.20" arrival="44.80" arrivalLane="19442635_0" arrivalPos="175.64" arrivalPosLat="0.00" arrivalSpeed="23.24" duration="42.60" routeLength="961.76" waitingTime="0.00" waitingCount="0" stopTime="0.00" timeLoss="7.21" rerouteNo="0" devices="tripinfo_flow_4_390.0 fcd_flow_4_390.0" vType="hdv" speedFactor="1.05" vaporized=""/>
    <tripinfo id="flow_3_390.0" depart="1.20" departLane="19441652#0_0" departPos="4.40" departPosLat="0.00" departSpeed="18.46" departDelay="1.20" arrival="52.20" arrivalLane="19442635_0" arrivalPos="175.64" arrivalPosLat="0.00" arrivalSpeed="18.46" duration="51.00" routeLength="961.08" waitingTime="0.00" waitingCount="0" stopTime="0.00" timeLoss="6.51" rerouteNo="0" devices="tripinfo_flow_3_390.0 fcd_flow_3_390.0" vType="hdv" speedFactor="0.83" vaporized=""/>
    <tripinfo id="flow_1_390.1" depart="7.10" departLane="277208926_0" departPos="4.40" departPosLat="0.00" departSpeed="20.01" departDelay="0.07" arrival="56.10" arrivalLane="634155175_0" arrivalPos="768.32" arrivalPosLat="0.00" arrivalSpeed="28.18" duration="49.00" routeLength="1263.32" waitingTime="0.00" waitingCount="0" stopTime="0.00" timeLoss="0.93" rerouteNo="0" devices="tripinfo_flow_1_390.1 fcd_flow_1_390.1" vType="hdv" speedFactor="0.90" vaporized=""/>
    <tripinfo id="flow_1_390.2" depart="14.10" departLane="277208926_0" departPos="4.40" departPosLat="0.00" departSpeed="22.38" departDelay="0.04" arrival="59.40" arrivalLane="634155175_0" arrivalPos="768.32" arrivalPosLat="0.00" arrivalSpeed="31.01" duration="45.30" routeLength="1263.32" waitingTime="0.00" waitingCount="0" stopTime="0.00" timeLoss="2.25" rerouteNo="0" devices="tripinfo_flow_1_390.2 fcd_flow_1_390.2" vType="hdv" speedFactor="1.01" vaporized=""/>
    <tripinfo id="flow_3_390.1" depart="17.40" departLane="19441652#0_0" departPos="4.40" departPosLat="0.00" departSpeed="20.61" departDelay="0.09" arrival="62.70" arrivalLane="19442635_0" arrivalPos="175.64" arrivalPosLat="0.00" arrivalSpeed="20.61" duration="45.30" routeLength="961.08" waitingTime="0.00" waitingCount="0" stopTime="0.00" timeLoss="5.44" rerouteNo="0" devices="tripinfo_flow_3_390.1 fcd_flow_3_390.1" vType="hdv" speedFactor="0.93" vaporized=""/>
    <tripinfo id="flow_1_390.3" depart="21.10" departLane="277208926_0" departPos="4.40" departPosLat="0.00" departSpeed="23.05" departDelay="0.01" arrival="64.60" arrivalLane="634155175_0" arrivalPos="768.32" arrivalPosLat="0.00" arrivalSpeed="32.37" duration="43.50" routeLength="1263.32" waitingTime="0.00" waitingCount="0" stopTime="0.00" timeLoss="1.72" rerouteNo="0" devices="tripinfo_flow_1_390.3 fcd_flow_1_390.3" vType="hdv" speedFactor="1.04" vaporized=""/>
    <tripinfo id="flow_4_390.1" depart="17.40" departLane="1016548847_0" departPos="4.40" departPosLat="0.00" departSpeed="19.24" departDelay="0.09" arrival="66.40" arrivalLane="19442635_0" arrivalPos="175.64" arrivalPosLat="0.00" arrivalSpeed="19.20" duration="49.00" routeLength="961.76" waitingTime="0.00" waitingCount="0" stopTime="0.00" timeLoss="6.27" rerouteNo="0" devices="tripinfo_flow_4_390.1 fcd_flow_4_390.1" vType="hdv" speedFactor="0.87" vaporized=""/>
    <tripinfo id="flow_1_390.4" depart="28.20" departLane="277208926_0" departPos="4.40" departPosLat="0.00" departSpeed="19.84" departDelay="0.08" arrival="77.70" arrivalLane="634155175_0" arrivalPos="768.32" arrivalPosLat="0.00" arrivalSpeed="27.94" duration="49.50" routeLength="1263.32" waitingTime="0.00" waitingCount="0" stopTime="0.00" timeLoss="0.99" rerouteNo="0" devices="tripinfo_flow_1_390.4 fcd_flow_1_390.4" vType="hdv" speedFactor="0.89" vaporized=""/>
    <tripinfo id="flow_10_390.0" depart="0.00" departLane="1016548847_0" departPos="4.40" departPosLat="0.00" departSpeed="22.45" departDelay="0.00" arrival="78.10" arrivalLane="634155175_1" arrivalPos="768.32" arrivalPosLat="0.00" arrivalSpeed="31.62" duration="78.10" routeLength="2284.56" waitingTime="0.00" waitingCount="0" stopTime="0.00" timeLoss="1.96" rerouteNo="0" devices="tripinfo_flow_10_390.0 fcd_flow_10_390.0" vType="hdv" speedFactor="1.01" vaporized=""/>
    <tripinfo id="flow_1_390.5" depart="35.20" departLane="277208926_0" departPos="4.40" departPosLat="0.00" departSpeed="20.23" departDelay="0.05" arrival="84.20" arrivalLane="634155175_0" arrivalPos="768.32" arrivalPosLat="0.00" arrivalSpeed="28.46" duration="49.00" routeLength="1263.32" waitingTime="0.00" waitingCount="0" stopTime="0.00" timeLoss="1.40" rerouteNo="0" devices="tripinfo_flow_1_390.5 fcd_flow_1_390.5" vType="hdv" speedFactor="0.91" vaporized=""/>
    <tripinfo id="flow_9_390.0" depart="0.00" departLane="19441652#0_0" departPos="4.40" departPosLat="0.00" departSpeed="20.85" departDelay="0.00" arrival="85.80" arrivalLane="634155175_1" arrivalPos="768.32" arrivalPosLat="0.00" arrivalSpeed="29.35" duration="85.80" routeLength="2283.88" waitingTime="0.00" waitingCount="0" stopTime="0.00" timeLoss="3.81" rerouteNo="0" devices="tripinfo_flow_9_390.0 fcd_flow_9_390.0" vType="hdv" speedFactor="0.94" vaporized=""/>
    <tripinfo id="flow_10_390.1" depart="5.00" departLane="1016548847_0" departPos="4.40" departPosLat="0.00" departSpeed="26.21" departDelay="0.00" arrival="87.30" arrivalLane="634155175_1" arrivalPos="768.32" arrivalPosLat="0.00" arrivalSpeed="31.49" duration="82.30" routeLength="2284.56" waitingTime="0.00" waitingCount="0" stopTime="0.00" timeLoss="17.05" rerouteNo="0" devices="tripinfo_flow_10_390.1 fcd_flow_10_390.1" vType="hdv" speedFactor="1.18" vaporized=""/>
    <tripinfo id="flow_1_390.6" depart="42.20" departLane="277208926_0" departPos="4.40" departPosLat="0.00" departSpeed="22.54" departDelay="0.01" arrival="87.30" arrivalLane="634155175_0" arrivalPos="768.32" arrivalPosLat="0.00" arrivalSpeed="30.63" duration="45.10" routeLength="1263.32" waitingTime="0.00" waitingCount="0" stopTime="0.00" timeLoss="2.39" rerouteNo="0" devices="tripinfo_flow_1_390.6 fcd_flow_1_390.6" vType="hdv" speedFactor="1.01" vaporized=""/>
    <tripinfo id="flow_9_390.1" depart="5.00" departLane="19441652#0_0" departPos="4.40" departPosLat="0.00" departSpeed="21.62" departDelay="0.00" arrival="92.00" arrivalLane="634155175_0" arrivalPos="768.32" arrivalPosLat="0.00" arrivalSpeed="30.36" duration="87.00" routeLength="2283.88" waitingTime="0.00" waitingCount="0" stopTime="0.00" timeLoss="8.00" rerouteNo="0" devices="tripinfo_flow_9_390.1 fcd_flow_9_390.1" vType="hdv" speedFactor="0.97" vaporized=""/>
    <tripinfo id="flow_9_390.2" depart="10.00" departLane="19441652#0_0" departPos="4.40" departPosLat="0.00" departSpeed="20.83" departDelay="0.00" arrival="96.80" arrivalLane="634155175_1" arrivalPos="768.32" arrivalPosLat="0.00" arrivalSpeed="29.31" duration="86.80" routeLength="2283.88" waitingTime="0.00" waitingCount="0" stopTime="0.00" timeLoss="4.80" rerouteNo="0" devices="tripinfo_flow_9_390.2 fcd_flow_9_390.2" vType="hdv" speedFactor="0.94" vaporized=""/>
    <tripinfo id="flow_1_390.7" depart="49.30" departLane="277208926_0" departPos="4.40" departPosLat="0.00" departSpeed="20.82" departDelay="0.08" arrival="96.80" arrivalLane="634155175_0" arrivalPos="768.32" arrivalPosLat="0.00" arrivalSpeed="29.29" duration="47.50" routeLength="1263.32" waitingTime="0.00" waitingCount="0" stopTime="0.00" timeLoss="1.28" rerouteNo="0" devices="tripinfo_flow_1_390.7 fcd_flow_1_390.7" vType="hdv" speedFactor="0.94" vaporized=""/>
    <tripinfo id="flow_10_390.3" depart="15.00" departLane="1016548847_0" departPos="4.40" departPosLat="0.00" departSpeed="24.24" departDelay="0.00" arrival="98.50" arrivalLane="634155175_1" arrivalPos="768.32" arrivalPosLat="0.00" arrivalSpeed="30.95" duration="83.50" routeLength="2284.56" waitingTime="0.00" waitingCount="0" stopTime="0.00" timeLoss="12.95" rerouteNo="0" devices="tripinfo_flow_10_390.3 fcd_flow_10_390.3" vType="hdv" speedFactor="1.09" vaporized=""/>
    <tripinfo id="flow_10_390.2" depart="10.00" departLane="1016548847_0" departPos="4.40" departPosLat="0.00" departSpeed="19.60" departDelay="0.00" arrival="103.20" arrivalLane="634155175_0" arrivalPos="768.32" arrivalPosLat="0.00" arrivalSpeed="27.60" duration="93.20" routeLength="2284.56" waitingTime="0.00" waitingCount="0" stopTime="0.00" timeLoss="5.94" rerouteNo="0" devices="tripinfo_flow_10_390.2 fcd_flow_10_390.2" vType="hdv" speedFactor="0.88" vaporized=""/>
    <tripinfo id="flow_9_390.3" depart="15.00" departLane="19441652#0_0" departPos="4.40" departPosLat="0.00" departSpeed="20.47" departDelay="0.00" arrival="105.50" arrivalLane="634155175_0" arrivalPos="768.32" arrivalPosLat="0.00" arrivalSpeed="28.08" duration="90.50" routeLength="2283.88" waitingTime="0.00" waitingCount="0" stopTime="0.00" timeLoss="7.06" rerouteNo="0" devices="tripinfo_flow_9_390.3 fcd_flow_9_390.3" vType="hdv" speedFactor="0.92" vaporized=""/>
    <tripinfo id="flow_3_390.2" depart="34.70" departLane="19441652#0_0" departPos="4.40" departPosLat="0.00" departSpeed="24.48" departDelay="0.08" arrival="106.70" arrivalLane="19442635_0" arrivalPos="175.64" arrivalPosLat="0.00" arrivalSpeed="24.48" duration="72.00" routeLength="961.08" waitingTime="5.90" waitingCount="5" stopTime="0.00" timeLoss="38.43" rerouteNo="0" devices="tripinfo_flow_3_390.2 fcd_flow_3_390.2" vType="hdv" speedFactor="1.10" vaporized=""/>
    <tripinfo id="flow_1_390.8" depart="56.30" departLane="277208926_0" departPos="4.40" departPosLat="0.00" departSpeed="19.19" departDelay="0.05" arrival="108.60" arrivalLane="634155175_0" arrivalPos="768.32" arrivalPosLat="0.00" arrivalSpeed="26.79" duration="52.30" routeLength="1263.32" waitingTime="0.00" waitingCount="0" stopTime="0.00" timeLoss="2.13" rerouteNo="0" devices="tripinfo_flow_1_390.8 fcd_flow_1_390.8" vType="hdv" speedFactor="0.86" vaporized=""/>
    <tripinfo id="flow_1_391.0" depart="60.00" departLane="277208926_0" departPos="4.40" departPosLat="0.00" departSpeed="22.07" departDelay="0.00" arrival="110.30" arrivalLane="634155175_0" arrivalPos="768.32" arrivalPosLat="0.00" arrivalSpeed="28.23" duration="50.30" routeLength="1263.32" waitingTime="0.00" waitingCount="0" stopTime="0.00" timeLoss="6.67" rerouteNo="0" devices="tripinfo_flow_1_391.0 fcd_flow_1_391.0" vType="hdv" speedFactor="0.99" vaporized=""/>
    <tripinfo id="flow_10_390.4" depart="20.40" departLane="1016548847_0" departPos="4.40" departPosLat="0.00" departSpeed="22.94" departDelay="0.40" arrival="114.50" arrivalLane="634155175_1" arrivalPos="768.32" arrivalPosLat="0.00" arrivalSpeed="32.30" duration="94.10" routeLength="2284.56" waitingTime="2.60" waitingCount="1" stopTime="0.00" timeLoss="19.48" rerouteNo="0" devices="tripinfo_flow_10_390.4 fcd_flow_10_390.4" vType="hdv" speedFactor="1.03" vaporized=""/>
    <tripinfo id="flow_1_391.1" depart="68.20" departLane="277208926_0" departPos="4.40" departPosLat="0.00" departSpeed="21.50" departDelay="0.06" arrival="114.80" arrivalLane="634155175_0" arrivalPos="768.32" arrivalPosLat="0.00" arrivalSpeed="30.11" duration="46.60" routeLength="1263.32" waitingTime="0.00" waitingCount="0" stopTime="0.00" timeLoss="1.80" rerouteNo="0" devices="tripinfo_flow_1_391.1 fcd_flow_1_391.1" vType="hdv" speedFactor="0.97" vaporized=""/>
    <tripinfo id="flow_1_391.2" depart="76.30" departLane="277208926_0" departPos="4.40" departPosLat="0.00" departSpeed="22.77" departDelay="0.01" arrival="120.30" arrivalLane="634155175_0" arrivalPos="768.32" arrivalPosLat="0.00" arrivalSpeed="31.99" duration="44.00" routeLength="1263.32" waitingTime="0.00" waitingCount="0" stopTime="0.00" timeLoss="1.69" rerouteNo="0" devices="tripinfo_flow_1_391.2 fcd_flow_1_391.2" vType="hdv" speedFactor="1.02" vaporized=""/>
    <tripinfo id="flow_10_390.5" depart="25.00" departLane="1016548847_0" departPos="4.40" departPosLat="0.00" departSpeed="26.20" departDelay="0.00" arrival="120.40" arrivalLane="634155175_1" arrivalPos="768.32" arrivalPosLat="0.00" arrivalSpeed="36.76" duration="95.40" routeLength="2284.56" waitingTime="6.40" waitingCount="3" stopTime="0.00" timeLoss="30.08" rerouteNo="0" devices="tripinfo_flow_10_390.5 fcd_flow_10_390.5" vType="hdv" speedFactor="1.18" vaporized=""/>
    <tripinfo id="flow_12_390.0" depart="5.30" departLane="1070403831#1-AddedOnRampEdge_0" departPos="4.40" departPosLat="0.00" departSpeed="24.24" departDelay="5.30" arrival="131.40" arrivalLane="19440902_0" arrivalPos="158.30" arrivalPosLat="0.00" arrivalSpeed="24.24" duration="126.10" routeLength="3732.78" waitingTime="0.00" waitingCount="0" stopTime="0.00" timeLoss="8.43" rerouteNo="0" devices="tripinfo_flow_12_390.0 fcd_flow_12_390.0" vType="hdv" speedFactor="1.09" vaporized=""/>
    <tripinfo id="flow_1_391.3" depart="84.50" departLane="277208926_0" departPos="4.40" departPosLat="0.00" departSpeed="19.22" departDelay="0.07" arrival="135.40" arrivalLane="634155175_0" arrivalPos="768.32" arrivalPosLat="0.00" arrivalSpeed="27.06" duration="50.90" routeLength="1263.32" waitingTime="0.00" waitingCount="0" stopTime="0.00" timeLoss="0.86" rerouteNo="0" devices="tripinfo_flow_1_391.3 fcd_flow_1_391.3" vType="hdv" speedFactor="0.86" vaporized=""/>
    <tripinfo id="flow_11_390.1" depart="13.30" departLane="1070403831#1-AddedOnRampEdge_0" departPos="4.40" departPosLat="0.00" departSpeed="25.65" departDelay="9.26" arrival="138.60" arrivalLane="1040737038_0" arrivalPos="206.46" arrivalPosLat="0.00" arrivalSpeed="25.65" duration="125.30" routeLength="3781.06" waitingTime="0.00" waitingCount="0" stopTime="0.00" timeLoss="12.32" rerouteNo="0" devices="tripinfo_flow_11_390.1 fcd_flow_11_390.1" vType="hdv" speedFactor="1.15" vaporized=""/>
    <tripinfo id="flow_9_390.6" depart="30.00" departLane="19441652#0_0" departPos="4.40" departPosLat="0.00" departSpeed="20.93" departDelay="0.00" arrival="140.90" arrivalLane="634155175_1" arrivalPos="768.32" arrivalPosLat="0.00" arrivalSpeed="29.47" duration="110.90" routeLength="2283.88" waitingTime="7.60" waitingCount="4" stopTime="0.00" timeLoss="29.26" rerouteNo="0" devices="tripinfo_flow_9_390.6 fcd_flow_9_390.6" vType="hdv" speedFactor="0.94" vaporized=""/>
    <tripinfo id="flow_1_391.4" depart="92.60" departLane="277208926_0" departPos="4.40" departPosLat="0.00" departSpeed="19.94" departDelay="0.02" arrival="142.20" arrivalLane="634155175_0" arrivalPos="768.32" arrivalPosLat="0.00" arrivalSpeed="28.06" duration="49.60" routeLength="1263.32" waitingTime="0.00" waitingCount="0" stopTime="0.00" timeLoss="1.37" rerouteNo="0" devices="tripinfo_flow_1_391.4 fcd_flow_1_391.4" vType="hdv" speedFactor="0.90" vaporized=""/>
    <tripinfo id="flow_1_391.5" depart="100.80" departLane="277208926_0" departPos="4.40" departPosLat="0.00" departSpeed="22.59" departDelay="0.08" arrival="145.60" arrivalLane="634155175_0" arrivalPos="768.32" arrivalPosLat="0.00" arrivalSpeed="31.32" duration="44.80" routeLength="1263.32" waitingTime="0.00" waitingCount="0" stopTime="0.00" timeLoss="2.20" rerouteNo="0" devices="tripinfo_flow_1_391.5 fcd_flow_1_391.5" vType="hdv" speedFactor="1.02" vaporized=""/>
    <tripinfo id="flow_12_390.2" depart="24.40" departLane="1070403831#1-AddedOnRampEdge_0" departPos="4.40" departPosLat="0.00" departSpeed="25.39" departDelay="16.31" arrival="150.20" arrivalLane="19440902_0" arrivalPos="158.30" arrivalPosLat="0.00" arrivalSpeed="25.39" duration="125.80" routeLength="3732.78" waitingTime="0.00" waitingCount="0" stopTime="0.00" timeLoss="13.46" rerouteNo="0" devices="tripinfo_flow_12_390.2 fcd_flow_12_390.2" vType="hdv" speedFactor="1.14" vaporized=""/>
    <tripinfo id="flow_4_390.2" depart="34.70" departLane="1016548847_0" departPos="4.40" departPosLat="0.00" departSpeed="18.50" departDelay="0.08" arrival="153.10" arrivalLane="19442635_0" arrivalPos="175.64" arrivalPosLat="0.00" arrivalSpeed="18.50" duration="118.40" routeLength="961.76" waitingTime="27.80" waitingCount="8" stopTime="0.00" timeLoss="73.95" rerouteNo="0" devices="tripinfo_flow_4_390.2 fcd_flow_4_390.2" vType="hdv" speedFactor="0.83" vaporized=""/>
    <tripinfo id="flow_12_390.1" depart="14.30" departLane="1070403831#1-AddedOnRampEdge_0" departPos="4.40" departPosLat="0.00" departSpeed="22.34" departDelay="10.26" arrival="158.20" arrivalLane="19440902_0" arrivalPos="158.30" arrivalPosLat="0.00" arrivalSpeed="22.32" duration="143.90" routeLength="3732.78" waitingTime="0.00" waitingCount="0" stopTime="0.00" timeLoss="16.32" rerouteNo="0" devices="tripinfo_flow_12_390.1 fcd_flow_12_390.1" vType="hdv" speedFactor="1.01" vaporized=""/>
    <tripinfo id="flow_1_391.6" depart="108.90" departLane="277208926_0" departPos="4.40" departPosLat="0.00" departSpeed="19.71" departDelay="0.03" arrival="158.60" arrivalLane="634155175_0" arrivalPos="768.32" arrivalPosLat="0.00" arrivalSpeed="27.75" duration="49.70" routeLength="1263.32" waitingTime="0.00" waitingCount="0" stopTime="0.00" timeLoss="0.90" rerouteNo="0" devices="tripinfo_flow_1_391.6 fcd_flow_1_391.6" vType="hdv" speedFactor="0.89" vaporized=""/>
    <tripinfo id="flow_11_390.0" depart="2.10" departLane="1070403831#1-AddedOnRampEdge_0" departPos="4.40" departPosLat="0.00" departSpeed="19.04" departDelay="2.10" arrival="159.30" arrivalLane="1040737038_0" arrivalPos="206.46" arrivalPosLat="0.00" arrivalSpeed="19.04" duration="157.20" routeLength="3781.06" waitingTime="0.00" waitingCount="0" stopTime="0.00" timeLoss="4.95" rerouteNo="0" devices="tripinfo_flow_11_390.0 fcd_flow_11_390.0" vType="hdv" speedFactor="0.86" vaporized=""/>
    <tripinfo id="flow_10_390.6" depart="30.00" departLane="1016548847_0" departPos="4.40" departPosLat="0.00" departSpeed="20.35" departDelay="0.00" arrival="160.50" arrivalLane="634155175_0" arrivalPos="768.32" arrivalPosLat="0.00" arrivalSpeed="27.47" duration="130.50" routeLength="2284.56" waitingTime="17.80" waitingCount="5" stopTime="0.00" timeLoss="46.45" rerouteNo="0" devices="tripinfo_flow_10_390.6 fcd_flow_10_390.6" vType="hdv" speedFactor="0.92" vaporized=""/>
    <tripinfo id="flow_9_390.8" depart="40.00" departLane="19441652#0_0" departPos="4.40" departPosLat="0.00" departSpeed="22.75" departDelay="0.00" arrival="162.90" arrivalLane="634155175_1" arrivalPos="768.32" arrivalPosLat="0.00" arrivalSpeed="31.96" duration="122.90" routeLength="2283.88" waitingTime="9.50" waitingCount="5" stopTime="0.00" timeLoss="47.81" rerouteNo="0" devices="tripinfo_flow_9_390.8 fcd_flow_9_390.8" vType="hdv" speedFactor="1.02" vaporized=""/>
    <tripinfo id="flow_9_390.7" depart="36.30" departLane="19441652#0_0" departPos="4.40" departPosLat="0.00" departSpeed="24.17" departDelay="1.30" arrival="167.00" arrivalLane="634155175_1" arrivalPos="768.32" arrivalPosLat="0.00" arrivalSpeed="33.79" duration="130.70" routeLength="2283.88" waitingTime="21.90" waitingCount="7" stopTime="0.00" timeLoss="60.00" rerouteNo="0" devices="tripinfo_flow_9_390.7 fcd_flow_9_390.7" vType="hdv" speedFactor="1.09" vaporized=""/>
    <tripinfo id="flow_1_391.7" depart="117.10" departLane="277208926_0" departPos="4.40" departPosLat="0.00" departSpeed="19.36" departDelay="0.09" arrival="168.00" arrivalLane="634155175_0" arrivalPos="768.32" arrivalPosLat="0.00" arrivalSpeed="27.25" duration="50.90" routeLength="1263.32" waitingTime="0.00" waitingCount="0" stopTime="0.00" timeLoss="1.22" rerouteNo="0" devices="tripinfo_flow_1_391.7 fcd_flow_1_391.7" vType="hdv" speedFactor="0.87" vaporized=""/>
    <tripinfo id="flow_1_392.0" depart="120.00" departLane="277208926_0" departPos="4.40" departPosLat="0.00" departSpeed="23.43" departDelay="0.00" arrival="169.60" arrivalLane="634155175_0" arrivalPos="768.32" arrivalPosLat="0.00" arrivalSpeed="29.17" duration="49.60" routeLength="1263.32" waitingTime="0.00" waitingCount="0" stopTime="0.00" timeLoss="8.54" rerouteNo="0" devices="tripinfo_flow_1_392.0 fcd_flow_1_392.0" vType="hdv" speedFactor="1.05" vaporized=""/>
    <tripinfo id="flow_3_390.3" depart="52.60" departLane="19441652#0_0" departPos="4.40" departPosLat="0.00" departSpeed="25.15" departDelay="0.68" arrival="169.70" arrivalLane="19442635_0" arrivalPos="175.64" arrivalPosLat="0.00" arrivalSpeed="25.15" duration="117.10" routeLength="961.08" waitingTime="18.70" waitingCount="4" stopTime="0.00" timeLoss="84.44" rerouteNo="0" devices="tripinfo_flow_3_390.3 fcd_flow_3_390.3" vType="hdv" speedFactor="1.13" vaporized=""/>
    <tripinfo id="flow_11_390.2" depart="21.10" departLane="1070403831#1-AddedOnRampEdge_0" departPos="4.40" departPosLat="0.00" departSpeed="19.97" departDelay="13.01" arrival="171.80" arrivalLane="1040737038_0" arrivalPos="206.46" arrivalPosLat="0.00" arrivalSpeed="19.97" duration="150.70" routeLength="3781.06" waitingTime="0.00" waitingCount="0" stopTime="0.00" timeLoss="5.55" rerouteNo="0" devices="tripinfo_flow_11_390.2 fcd_flow_11_390.2" vType="hdv" speedFactor="0.90" vaporized=""/>
    <tripinfo id="flow_1_392.1" depart="128.50" departLane="277208926_0" departPos="4.40" departPosLat="0.00" departSpeed="22.30" departDelay="0.09" arrival="173.60" arrivalLane="634155175_0" arrivalPos="768.32" arrivalPosLat="0.00" arrivalSpeed="31.12" duration="45.10" routeLength="1263.32" waitingTime="0.00" waitingCount="0" stopTime="0.00" timeLoss="1.97" rerouteNo="0" devices="tripinfo_flow_1_392.1 fcd_flow_1_392.1" vType="hdv" speedFactor="1.00" vaporized=""/>
    <tripinfo id="flow_19_390.0" depart="2.90" departLane="27828382_0" departPos="4.40" departPosLat="0.00" departSpeed="32.11" departDelay="2.90" arrival="177.50" arrivalLane="1040737038_0" arrivalPos="206.46" arrivalPosLat="-0.00" arrivalSpeed="22.78" duration="174.60" routeLength="4966.68" waitingTime="0.00" waitingCount="0" stopTime="0.00" timeLoss="15.41" rerouteNo="0" devices="tripinfo_flow_19_390.0 fcd_flow_19_390.0" vType="hdv" speedFactor="1.03" vaporized=""/>
    <tripinfo id="flow_20_390.0" depart="4.80" departLane="27828382_0" departPos="4.40" departPosLat="0.00" departSpeed="32.76" departDelay="4.80" arrival="178.60" arrivalLane="19440902_0" arrivalPos="158.30" arrivalPosLat="-0.00" arrivalSpeed="23.22" duration="173.80" routeLength="4918.40" waitingTime="0.00" waitingCount="0" stopTime="0.00" timeLoss="19.76" rerouteNo="0" devices="tripinfo_flow_20_390.0 fcd_flow_20_390.0" vType="hdv" speedFactor="1.05" vaporized=""/>
    <tripinfo id="flow_11_390.3" depart="33.30" departLane="1070403831#1-AddedOnRampEdge_0" departPos="4.40" departPosLat="0.00" departSpeed="24.15" departDelay="21.17" arrival="179.60" arrivalLane="1040737038_0" arrivalPos="206.46" arrivalPosLat="0.00" arrivalSpeed="23.24" duration="146.30" routeLength="3781.06" waitingTime="0.00" waitingCount="0" stopTime="0.00" timeLoss="26.24" rerouteNo="0" devices="tripinfo_flow_11_390.3 fcd_flow_11_390.3" vType="hdv" speedFactor="1.09" vaporized=""/>
    <tripinfo id="flow_12_390.3" depart="34.90" departLane="1070403831#1-AddedOnRampEdge_0" departPos="4.40" departPosLat="0.00" departSpeed="22.99" departDelay="22.77" arrival="180.80" arrivalLane="19440902_0" arrivalPos="158.30" arrivalPosLat="0.00" arrivalSpeed="22.47" duration="145.90" routeLength="3732.78" waitingTime="0.00" waitingCount="0" stopTime="0.00" timeLoss="21.91" rerouteNo="0" devices="tripinfo_flow_12_390.3 fcd_flow_12_390.3" vType="hdv" speedFactor="1.03" vaporized=""/>
    <tripinfo id="flow_20_390.1" depart="30.30" departLane="27828382_0" departPos="4.40" departPosLat="0.00" departSpeed="35.41" departDelay="26.52" arrival="184.10" arrivalLane="19440902_0" arrivalPos="158.30" arrivalPosLat="-0.00" arrivalSpeed="24.84" duration="153.80" routeLength="4918.40" waitingTime="0.00" waitingCount="0" stopTime="0.00" timeLoss="11.29" rerouteNo="0" devices="tripinfo_flow_20_390.1 fcd_flow_20_390.1" vType="hdv" speedFactor="1.13" vaporized=""/>
    <tripinfo id="flow_13_390.0" depart="0.60" departLane="1070403831#1-AddedOnRampEdge_0" departPos="4.40" departPosLat="0.00" departSpeed="19.69" departDelay="0.60" arrival="184.20" arrivalLane="19442635_0" arrivalPos="175.64" arrivalPosLat="-0.00" arrivalSpeed="19.69" duration="183.60" routeLength="4713.09" waitingTime="0.00" waitingCount="0" stopTime="0.00" timeLoss="5.38" rerouteNo="0" devices="tripinfo_flow_13_390.0 fcd_flow_13_390.0" vType="hdv" speedFactor="0.89" vaporized=""/>
    <tripinfo id="flow_1_392.2" depart="136.90" departLane="277208926_0" departPos="4.40" departPosLat="0.00" departSpeed="20.21" departDelay="0.08" arrival="185.50" arrivalLane="634155175_0" arrivalPos="768.32" arrivalPosLat="0.00" arrivalSpeed="28.45" duration="48.60" routeLength="1263.32" waitingTime="0.00" waitingCount="0" stopTime="0.00" timeLoss="0.97" rerouteNo="0" devices="tripinfo_flow_1_392.2 fcd_flow_1_392.2" vType="hdv" speedFactor="0.91" vaporized=""/>
    <tripinfo id="flow_23_390.0" depart="0.00" departLane="1070403831#1-AddedOnRampEdge_0" departPos="4.40" departPosLat="0.00" departSpeed="24.06" departDelay="0.00" arrival="186.30" arrivalLane="634155175_1" arrivalPos="768.32" arrivalPosLat="0.00" arrivalSpeed="33.87" duration="186.30" routeLength="6035.89" waitingTime="0.00" waitingCount="0" stopTime="0.00" timeLoss="3.59" rerouteNo="0" devices="tripinfo_flow_23_390.0 fcd_flow_23_390.0" vType="hdv" speedFactor="1.08" vaporized=""/>
    <tripinfo id="flow_9_390.9" depart="45.00" departLane="19441652#0_0" departPos="4.40" departPosLat="0.00" departSpeed="18.99" departDelay="0.00" arrival="189.70" arrivalLane="634155175_0" arrivalPos="768.32" arrivalPosLat="0.00" arrivalSpeed="26.69" duration="144.70" routeLength="2283.88" waitingTime="16.80" waitingCount="6" stopTime="0.00" timeLoss="54.75" rerouteNo="0" devices="tripinfo_flow_9_390.9 fcd_flow_9_390.9" vType="hdv" speedFactor="0.85" vaporized=""/>
    <tripinfo id="flow_23_390.1" depart="7.60" departLane="1070403831#1-AddedOnRampEdge_0" departPos="4.40" departPosLat="0.00" departSpeed="25.74" departDelay="5.59" arrival="189.90" arrivalLane="634155175_1" arrivalPos="768.32" arrivalPosLat="0.00" arrivalSpeed="35.81" duration="182.30" routeLength="6035.89" waitingTime="0.00" waitingCount="0" stopTime="0.00" timeLoss="11.43" rerouteNo="0" devices="tripinfo_flow_23_390.1 fcd_flow_23_390.1" vType="hdv" speedFactor="1.16" vaporized=""/>
    <tripinfo id="flow_23_390.2" depart="11.60" departLane="1070403831#1-AddedOnRampEdge_0" departPos="4.40" departPosLat="0.00" departSpeed="26.19" departDelay="7.58" arrival="192.70" arrivalLane="634155175_1" arrivalPos="768.32" arrivalPosLat="0.00" arrivalSpeed="36.20" duration="181.10" routeLength="6035.89" waitingTime="0.00" waitingCount="0" stopTime="0.00" timeLoss="13.24" rerouteNo="0" devices="tripinfo_flow_23_390.2 fcd_flow_23_390.2" vType="hdv" speedFactor="1.18" vaporized=""/>
    <tripinfo id="flow_13_390.1" depart="8.10" departLane="1070403831#1-AddedOnRampEdge_0" departPos="4.40" departPosLat="0.00" departSpeed="19.77" departDelay="5.28" arrival="192.80" arrivalLane="19442635_0" arrivalPos="175.64" arrivalPosLat="-0.00" arrivalSpeed="19.77" duration="184.70" routeLength="4713.09" waitingTime="0.00" waitingCount="0" stopTime="0.00" timeLoss="7.20" rerouteNo="0" devices="tripinfo_flow_13_390.1 fcd_flow_13_390.1" vType="hdv" speedFactor="0.89" vaporized=""/>
    <tripinfo id="flow_12_390.4" depart="44.30" departLane="1070403831#1-AddedOnRampEdge_0" departPos="4.40" departPosLat="0.00" departSpeed="23.84" departDelay="28.12" arrival="192.90" arrivalLane="19440902_0" arrivalPos="158.30" arrivalPosLat="0.00" arrivalSpeed="23.69" duration="148.60" routeLength="3732.78" waitingTime="0.00" waitingCount="0" stopTime="0.00" timeLoss="29.00" rerouteNo="0" devices="tripinfo_flow_12_390.4 fcd_flow_12_390.4" vType="hdv" speedFactor="1.07" vaporized=""/>
    <tripinfo id="flow_13_390.2" depart="15.80" departLane="1070403831#1-AddedOnRampEdge_0" departPos="4.40" departPosLat="0.00" departSpeed="21.27" departDelay="10.17" arrival="194.80" arrivalLane="19442635_0" arrivalPos="175.64" arrivalPosLat="0.00" arrivalSpeed="20.46" duration="179.00" routeLength="4713.09" waitingTime="0.00" waitingCount="0" stopTime="0.00" timeLoss="14.03" rerouteNo="0" devices="tripinfo_flow_13_390.2 fcd_flow_13_390.2" vType="hdv" speedFactor="0.96" vaporized=""/>